64-atom Nitrogen                        
 1
     7.916775    0.000000    0.000000
     0.000000    7.916775    0.000000
     0.000000    0.000000    7.916775
   N 
  64
Direct configuration=  3693
   0.84876549  0.32545057  0.65686168
   0.62467356  0.35857306  0.08868840
   0.53396118  0.85740809  0.92084269
   0.15509373  0.77876806  0.51776425
   0.10270545  0.42408578  0.44673410
   0.40945376  0.56868505  0.92573721
   0.76483340  0.54857868  0.51744336
   0.05335680  0.00980327  0.66940599
   0.48735562  0.80451904  0.33829500
   0.76739357  0.03142418  0.58254648
   0.34453513  0.36142621  0.66051758
   0.22076019  0.82471049  0.81648945
   0.94226613  0.87931022  0.98710212
   0.90551357  0.73997854  0.77659241
   0.28181593  0.18655743  0.90629151
   0.76183353  0.12578853  0.86389038
   0.24084405  0.60487303  0.21001742
   0.61444055  0.08099080  0.19850634
   0.51957522  0.41466876  0.31733779
   0.89829314  0.23464816  0.54497219
   0.07359724  0.35145055  0.81364018
   0.95485007  0.57906384  0.03320266
   0.73113362  0.72659397  0.22973980
   0.05819018  0.07955777  0.79207868
   0.61445982  0.25641774  0.46777583
   0.57572161  0.39786691  0.82298305
   0.89139449  0.44026185  0.27748325
   0.08397293  0.43601411  0.71029524
   0.29445509  0.52086713  0.84391534
   0.17303142  0.34027803  0.09969491
   0.10309176  0.66488399  0.58675549
   0.36692069  0.19097797  0.31154945
   0.72598521  0.02933954  0.12551292
   0.34386104  0.98342369  0.63525477
   0.67184214  0.82520461  0.96079318
   0.08696944  0.24139341  0.13181722
   0.83483576  0.31832733  0.25853847
   0.24994843  0.90402271  0.13815548
   0.86820023  0.61732739  0.46701905
   0.81669667  0.56238071  0.00793010
   0.52727532  0.91717351  0.38918036
   0.47183591  0.62918462  0.05451023
   0.86379152  0.76635493  0.19808197
   0.18144033  0.74072940  0.93214122
   0.98386723  0.00222848  0.03389208
   0.79916130  0.84146534  0.73864702
   0.43810844  0.64951735  0.60703170
   0.47206235  0.00498899  0.68291778
   0.25307472  0.83155481  0.43265053
   0.12363409  0.67247408  0.24627248
   0.37712964  0.96149712  0.14755395
   0.30533167  0.16175236  0.42997005
   0.80653928  0.92335485  0.49274550
   0.51554476  0.55403413  0.34377669
   0.08862785  0.03525016  0.35543785
   0.30479004  0.44319914  0.54261357
   0.56878823  0.22121321  0.59990739
   0.64031633  0.50984205  0.78093584
   0.38787392  0.12751179  0.95988504
   0.09764095  0.28905653  0.40870194
   0.97026815  0.97333763  0.30028079
   0.49471879  0.32506256  0.07938282
   0.55260280  0.71917779  0.62286742
   0.82194863  0.23113789  0.95044440
