64-atom Nitrogen                        
 1
     7.916775    0.000000    0.000000
     0.000000    7.916775    0.000000
     0.000000    0.000000    7.916775
   N 
  64
Direct configuration=  3693
   0.15694241  0.48623177  0.15992351
   0.49217122  0.10956849  0.10804746
   0.93565710  0.14544657  0.07925507
   0.58759028  0.24272866  0.42744245
   0.44154932  0.90013531  0.50259885
   0.62054648  0.02918518  0.13714412
   0.17329665  0.26052754  0.42992484
   0.04416687  0.19552328  0.87009929
   0.29736234  0.75116190  0.66206121
   0.48532221  0.58139871  0.53802549
   0.76966995  0.70188006  0.98970482
   0.70213162  0.81067609  0.42683241
   0.97930433  0.54661810  0.04613507
   0.46558180  0.38113530  0.19349337
   0.92415196  0.15767147  0.65879203
   0.61441044  0.36489866  0.50194131
   0.22247833  0.45114934  0.86022578
   0.26134438  0.73519055  0.18561791
   0.44865667  0.34435190  0.98304521
   0.90932989  0.05609155  0.47861950
   0.42747356  0.50841230  0.93033992
   0.12214638  0.17802252  0.32101296
   0.28065525  0.77774732  0.38058289
   0.98478413  0.94308431  0.74958235
   0.66625344  0.84702655  0.93767984
   0.55629566  0.49539919  0.33020415
   0.79854194  0.39437074  0.78985869
   0.34325112  0.12147619  0.60727541
   0.98881482  0.75571300  0.31458483
   0.79253440  0.09799513  0.22392099
   0.25309611  0.59659794  0.49591021
   0.79743574  0.10969464  0.89207977
   0.45374820  0.69290498  0.84154412
   0.72463642  0.48701675  0.26248867
   0.81015883  0.71523722  0.75247795
   0.16235163  0.14478029  0.65051550
   0.21327877  0.06555918  0.98359495
   0.77862886  0.67567465  0.44576951
   0.24067817  0.84674352  0.04706493
   0.08922431  0.99873762  0.55119903
   0.44390147  0.94480495  0.88172034
   0.03012143  0.45339398  0.92947818
   0.64445434  0.05743905  0.71959512
   0.05644994  0.81407801  0.50902978
   0.23062903  0.48041653  0.65100531
   0.95323484  0.53562269  0.75152179
   0.55548484  0.96733933  0.44712991
   0.20784342  0.27820159  0.24270821
   0.41916448  0.18081817  0.72113205
   0.10505043  0.95187093  0.24691428
   0.13735730  0.52873329  0.44842843
   0.27213832  0.96086235  0.67517250
   0.32703512  0.39143480  0.16614194
   0.07541064  0.74469309  0.67642365
   0.76055718  0.53097624  0.93594172
   0.52833951  0.24394753  0.27985452
   0.30722288  0.93739653  0.34541841
   0.84062111  0.61606016  0.19479882
   0.94646156  0.75314887  0.93261046
   0.86156040  0.86687767  0.32562989
   0.70778199  0.46485824  0.63136713
   0.61462498  0.33878606  0.90058461
   0.57449221  0.78738099  0.27183813
   0.42741068  0.62409457  0.35893852
